                         Program Version 5.0.3 -  RELEASE  -
|  1> # avogadro generated ORCA file
|  2> # CH2O2 | Frequencies | B3LYP/cc-pVQZ
|  3> #
|  4> ! Opt Freq B3LYP cc-pVQZ
|  5> %FREQ SCALFREQ 0.98
|  6>
|  7> END
|  8> %maxcore 1365
|  9>
| 10>
| 11> %pal
| 12>    nprocs 12
| 13> end
| 14>
| 15> * xyzfile 0 1 ../GO/CH2O2GO_trj.xyz
| 16>
| 17>
| 18>
| 19>                          ****END OF INPUT****
 Total Charge           Charge          ....    0
 Multiplicity           Mult            ....    1
 Number of Electrons    NEL             ....   24
FINAL SINGLE POINT ENERGY      -189.768102177498
FINAL SINGLE POINT ENERGY      -189.768311490607
FINAL SINGLE POINT ENERGY      -189.768324985999
FINAL SINGLE POINT ENERGY      -189.768299044750
FINAL SINGLE POINT ENERGY      -189.768328779929
                    ***********************HURRAY********************

CARTESIAN COORDINATES (ANGSTROEM)
---------------------------------
  O      0.535776    0.495273    0.872549
  C     -0.403171   -0.082685    0.104103
  O     -0.238365   -0.460481   -1.018530
  H      1.353106    0.545317    0.354398
  H     -1.343152   -0.154700    0.663581

 Multiplicity           Mult            ....    1
 Number of Electrons    NEL             ....   24
 Basis Dimension        Dim             ....  225

ORBITAL ENERGIES
----------------

  NO   OCC          E(Eh)            E(eV)
   0   2.0000     -19.188113      -522.1351
   1   2.0000     -19.131218      -520.5869
   2   2.0000     -10.314650      -280.6759
   3   2.0000      -1.124956       -30.6116
   4   2.0000      -1.039725       -28.2924
   5   2.0000      -0.675669       -18.3859
   6   2.0000      -0.531054       -14.4507
   7   2.0000      -0.500131       -13.6092
   8   2.0000      -0.461461       -12.5570
   9   2.0000      -0.418328       -11.3833
  10   2.0000      -0.344580        -9.3765
  11   2.0000      -0.302903        -8.2424
  12   0.0000      -0.015343        -0.4175
  13   0.0000       0.020826         0.5667
  14   0.0000       0.054741         1.4896
  15   0.0000       0.133587         3.6351
  16   0.0000       0.162279         4.4158

MULLIKEN ATOMIC CHARGES
-----------------------
   0 O :   -0.331984
   1 C :    0.452029
   2 O :   -0.388643
   3 H :    0.243128
   4 H :    0.025469
Sum of atomic charges:   -0.0000000

LOEWDIN ATOMIC CHARGES
----------------------
   0 O :    0.790159
   1 C :   -0.654973
   2 O :    0.383147
   3 H :   -0.386804
   4 H :   -0.131528

  Mayer bond orders larger than 0.100000
B(  0-O ,  1-C ) :   1.2087 B(  0-O ,  3-H ) :   0.9431 B(  1-C ,  2-O ) :   2.0525
B(  1-C ,  4-H ) :   0.9177

FINAL SINGLE POINT ENERGY      -189.768328839966

DIPOLE MOMENT
-------------
                                X             Y             Z
Electronic contribution:      0.16171      -0.11718      -0.43639
Nuclear contribution   :      0.01681       0.36875       0.95533
                        -----------------------------------------
Total Dipole Moment    :      0.17852       0.25157       0.51893
                        -----------------------------------------
Magnitude (a.u.)       :      0.60370
Magnitude (Debye)      :      1.53448

VIBRATIONAL FREQUENCIES
-----------------------

Scaling factor for frequencies =  0.980000000  (already applied!)

   0:         0.00 cm**-1
   1:         0.00 cm**-1
   2:         0.00 cm**-1
   3:         0.00 cm**-1
   4:         0.00 cm**-1
   5:         0.00 cm**-1
   6:       618.10 cm**-1
   7:       663.23 cm**-1
   8:      1033.41 cm**-1
   9:      1099.15 cm**-1
  10:      1275.32 cm**-1
  11:      1376.92 cm**-1
  12:      1780.98 cm**-1
  13:      2978.69 cm**-1
  14:      3646.39 cm**-1

IR SPECTRUM
-----------

 Mode   freq       eps      Int      T**2         TX        TY        TZ
       cm**-1   L/(mol*cm) km/mol    a.u.
----------------------------------------------------------------------------
  6:    618.10   0.008290   41.89  0.004185  ( 0.060673  0.021006  0.007928)
  7:    663.23   0.026771  135.29  0.012596  (-0.030380  0.100983 -0.038416)
  8:   1033.41   0.000302    1.52  0.000091  ( 0.002546 -0.008615  0.003224)
  9:   1099.15   0.049813  251.73  0.014142  ( 0.084852  0.050894  0.065973)
 10:   1275.32   0.001611    8.14  0.000394  (-0.018622 -0.006492 -0.002273)
 11:   1376.92   0.000478    2.42  0.000108  ( 0.009597  0.001473 -0.003758)
 12:   1780.98   0.068460  345.97  0.011996  (-0.020862 -0.043769 -0.098207)
 13:   2978.69   0.008467   42.79  0.000887  ( 0.023993  0.000540 -0.017638)
 14:   3646.39   0.011401   57.62  0.000976  (-0.029757 -0.006316  0.007096)

--------------------------
THERMOCHEMISTRY AT 298.15K
--------------------------

Temperature         ... 298.15 K
Pressure            ... 1.00 atm
Total Mass          ... 46.02 AMU

Throughout the following assumptions are being made:
  (1) The electronic state is orbitally nondegenerate
  (2) There are no thermally accessible electronically excited states
  (3) Hindered rotations indicated by low frequency modes are not
      treated as such but are treated as vibrations and this may
      cause some error
  (4) All equations used are the standard statistical mechanics
      equations for an ideal gas
  (5) All vibrations are strictly harmonic

freq.     618.10  E(vib)   ...       0.09
freq.     663.23  E(vib)   ...       0.08
freq.    1033.41  E(vib)   ...       0.02
freq.    1099.15  E(vib)   ...       0.02
freq.    1275.32  E(vib)   ...       0.01
freq.    1376.92  E(vib)   ...       0.01
freq.    1780.98  E(vib)   ...       0.00
freq.    2978.69  E(vib)   ...       0.00
freq.    3646.39  E(vib)   ...       0.00

------------
INNER ENERGY
------------

The inner energy is: U= E(el) + E(ZPE) + E(vib) + E(rot) + E(trans)
    E(el)   - is the total energy from the electronic structure calculation
              = E(kin-el) + E(nuc-el) + E(el-el) + E(nuc-nuc)
    E(ZPE)  - the the zero temperature vibrational energy from the frequency calculation
    E(vib)  - the the finite temperature correction to E(ZPE) due to population
              of excited vibrational states
    E(rot)  - is the rotational thermal energy
    E(trans)- is the translational thermal energy

Summary of contributions to the inner energy U:
Electronic energy                ...   -189.76832884 Eh
Zero point energy                ...      0.03297005 Eh      20.69 kcal/mol
Thermal vibrational correction   ...      0.00035808 Eh       0.22 kcal/mol
Thermal rotational correction    ...      0.00141627 Eh       0.89 kcal/mol
Thermal translational correction ...      0.00141627 Eh       0.89 kcal/mol
-----------------------------------------------------------------------
Total thermal energy                   -189.73216816 Eh

Summary of corrections to the electronic energy:
(perhaps to be used in another calculation)
Total thermal correction                  0.00319062 Eh       2.00 kcal/mol
Non-thermal (ZPE) correction              0.03297005 Eh      20.69 kcal/mol
-----------------------------------------------------------------------
Total correction                          0.03616068 Eh      22.69 kcal/mol

--------
ENTHALPY
--------

The enthalpy is H = U + kB*T
                kB is Boltzmann's constant
Total free energy                 ...   -189.73216816 Eh
Thermal Enthalpy correction       ...      0.00094421 Eh       0.59 kcal/mol
-----------------------------------------------------------------------
Total Enthalpy                    ...   -189.73122395 Eh

Note: Only C1 symmetry has been detected, increase convergence thresholds
      if your molecule has a higher symmetry. Symmetry factor of 1.0 is
      used for the rotational entropy correction.

Note: Rotational entropy computed according to Herzberg
Infrared and Raman Spectra, Chapter V,1, Van Nostrand Reinhold, 1945
Point Group:  C1, Symmetry Number:   1
Rotational constants in cm-1:     2.607852     0.402760     0.348879

Vibrational entropy computed according to the QRRHO of S. Grimme
Chem.Eur.J. 2012 18 9955

-------
ENTROPY
-------

The entropy contributions are T*S = T*(S(el)+S(vib)+S(rot)+S(trans))
     S(el)   - electronic entropy
     S(vib)  - vibrational entropy
     S(rot)  - rotational entropy
     S(trans)- translational entropy
The entropies will be listed as multiplied by the temperature to get
units of energy

Electronic entropy                ...      0.00000000 Eh      0.00 kcal/mol
Vibrational entropy               ...      0.00046141 Eh      0.29 kcal/mol
Rotational entropy                ...      0.00998475 Eh      6.27 kcal/mol
Translational entropy             ...      0.01777224 Eh     11.15 kcal/mol
-----------------------------------------------------------------------
Final entropy term                ...      0.02821840 Eh     17.71 kcal/mol

In case the symmetry of your molecule has not been determined correctly
or in case you have a reason to use a different symmetry number we print
out the resulting rotational entropy values for sn=1,12 :
 --------------------------------------------------------
|  sn= 1 | S(rot)=       0.00998475 Eh      6.27 kcal/mol|
|  sn= 2 | S(rot)=       0.00933029 Eh      5.85 kcal/mol|
|  sn= 3 | S(rot)=       0.00894746 Eh      5.61 kcal/mol|
|  sn= 4 | S(rot)=       0.00867584 Eh      5.44 kcal/mol|
|  sn= 5 | S(rot)=       0.00846515 Eh      5.31 kcal/mol|
|  sn= 6 | S(rot)=       0.00829301 Eh      5.20 kcal/mol|
|  sn= 7 | S(rot)=       0.00814746 Eh      5.11 kcal/mol|
|  sn= 8 | S(rot)=       0.00802138 Eh      5.03 kcal/mol|
|  sn= 9 | S(rot)=       0.00791017 Eh      4.96 kcal/mol|
|  sn=10 | S(rot)=       0.00781069 Eh      4.90 kcal/mol|
|  sn=11 | S(rot)=       0.00772070 Eh      4.84 kcal/mol|
|  sn=12 | S(rot)=       0.00763855 Eh      4.79 kcal/mol|
 --------------------------------------------------------

-------------------
GIBBS FREE ENERGY
-------------------

The Gibbs free energy is G = H - T*S

Total enthalpy                    ...   -189.73122395 Eh
Total entropy correction          ...     -0.02821840 Eh    -17.71 kcal/mol
-----------------------------------------------------------------------
Final Gibbs free energy         ...   -189.75944236 Eh

For completeness - the Gibbs free energy minus the electronic energy
G-E(el)                           ...      0.00888648 Eh      5.58 kcal/mol

                             ****ORCA TERMINATED NORMALLY****
TOTAL RUN TIME: 0 days 0 hours 2 minutes 4 seconds 65 msec
