                         Program Version 5.0.3 -  RELEASE  -
|  1> # avogadro generated ORCA file
|  2> # CH2O2 | Frequencies | PBE0/6-311+G**
|  3> #
|  4> ! Opt Freq B3LYP cc-pVQZ
|  5> %FREQ SCALFREQ 0.98
|  6>
|  7> END
|  8> %maxcore 1365
|  9>
| 10> %pal
| 11>    nprocs 12
| 12> end
| 13>
| 14> * xyzfile 1 2 ../GO/CH2O2GO_trj.xyz
| 15>
| 16>
| 17>
| 18>                          ****END OF INPUT****
 Total Charge           Charge          ....    1
 Multiplicity           Mult            ....    2
 Number of Electrons    NEL             ....   23
FINAL SINGLE POINT ENERGY      -189.351359208030
FINAL SINGLE POINT ENERGY      -189.356224205375
FINAL SINGLE POINT ENERGY      -189.359764571256
FINAL SINGLE POINT ENERGY      -189.360068107025
FINAL SINGLE POINT ENERGY      -189.360030007717
FINAL SINGLE POINT ENERGY      -189.360176352669
FINAL SINGLE POINT ENERGY      -189.360196034538
FINAL SINGLE POINT ENERGY      -189.360204130747
                    ***********************HURRAY********************

CARTESIAN COORDINATES (ANGSTROEM)
---------------------------------
  O      0.542696    0.481906    0.832734
  C     -0.386584   -0.057947    0.155986
  O     -0.282423   -0.473794   -1.017989
  H      1.408765    0.572804    0.381360
  H     -1.378259   -0.180244    0.624009

 Multiplicity           Mult            ....    2
 Number of Electrons    NEL             ....   23
 Basis Dimension        Dim             ....  225

ORBITAL ENERGIES
----------------
                 SPIN UP ORBITALS
  NO   OCC          E(Eh)            E(eV)
   0   1.0000     -19.565965      -532.4170
   1   1.0000     -19.510630      -530.9112
   2   1.0000     -10.649634      -289.7913
   3   1.0000      -1.479565       -40.2610
   4   1.0000      -1.397877       -38.0382
   5   1.0000      -0.995883       -27.0994
   6   1.0000      -0.886004       -24.1094
   7   1.0000      -0.856234       -23.2993
   8   1.0000      -0.793628       -21.5957
   9   1.0000      -0.719078       -19.5671
  10   1.0000      -0.711967       -19.3736
  11   1.0000      -0.680255       -18.5107
  12   0.0000      -0.333565        -9.0768
  13   0.0000      -0.210267        -5.7217
  14   0.0000      -0.159630        -4.3438
  15   0.0000      -0.115497        -3.1428
  16   0.0000      -0.071885        -1.9561

                 SPIN DOWN ORBITALS
  NO   OCC          E(Eh)            E(eV)
   0   1.0000     -19.540488      -531.7237
   1   1.0000     -19.508874      -530.8635
   2   1.0000     -10.650890      -289.8254
   3   1.0000      -1.454247       -39.5721
   4   1.0000      -1.361350       -37.0442
   5   1.0000      -0.986947       -26.8562
   6   1.0000      -0.852160       -23.1885
   7   1.0000      -0.825450       -22.4616
   8   1.0000      -0.784478       -21.3467
   9   1.0000      -0.703054       -19.1311
  10   1.0000      -0.665771       -18.1166
  11   0.0000      -0.511661       -13.9230
  12   0.0000      -0.329847        -8.9756
  13   0.0000      -0.206518        -5.6196
  14   0.0000      -0.155765        -4.2386
  15   0.0000      -0.107352        -2.9212

MULLIKEN ATOMIC CHARGES AND SPIN POPULATIONS
--------------------------------------------
   0 O :   -0.130812    0.052131
   1 C :    0.478753   -0.042560
   2 O :    0.089440    0.924532
   3 H :    0.320622    0.000451
   4 H :    0.241997    0.065445
Sum of atomic charges         :    1.0000000

LOEWDIN ATOMIC CHARGES AND SPIN POPULATIONS
-------------------------------------------
   0 O :    0.971284    0.039966
   1 C :   -0.404920    0.134240
   2 O :    0.714684    0.776309
   3 H :   -0.257935    0.005390
   4 H :   -0.023113    0.044095

  Mayer bond orders larger than 0.100000
B(  0-O ,  1-C ) :   1.5016 B(  0-O ,  2-O ) :   0.1322 B(  0-O ,  3-H ) :   0.8967
B(  1-C ,  2-O ) :   1.5979 B(  1-C ,  4-H ) :   0.8723

FINAL SINGLE POINT ENERGY      -189.360204822889

DIPOLE MOMENT
-------------
                                X             Y             Z
Electronic contribution:     -0.03577      -0.28351      -0.71496
Nuclear contribution   :      0.05104       0.37547       0.94366
                        -----------------------------------------
Total Dipole Moment    :      0.01526       0.09197       0.22870
                        -----------------------------------------
Magnitude (a.u.)       :      0.24697
Magnitude (Debye)      :      0.62774

VIBRATIONAL FREQUENCIES
-----------------------

Scaling factor for frequencies =  0.980000000  (already applied!)

   0:         0.00 cm**-1
   1:         0.00 cm**-1
   2:         0.00 cm**-1
   3:         0.00 cm**-1
   4:         0.00 cm**-1
   5:         0.00 cm**-1
   6:       465.26 cm**-1
   7:       694.64 cm**-1
   8:       988.39 cm**-1
   9:      1151.92 cm**-1
  10:      1181.91 cm**-1
  11:      1347.36 cm**-1
  12:      1499.30 cm**-1
  13:      2914.91 cm**-1
  14:      3511.21 cm**-1

IR SPECTRUM
-----------

 Mode   freq       eps      Int      T**2         TX        TY        TZ
       cm**-1   L/(mol*cm) km/mol    a.u.
----------------------------------------------------------------------------
  6:    465.26   0.007290   36.84  0.004890  (-0.066171 -0.022038 -0.005047)
  7:    694.64   0.035065  177.20  0.015753  ( 0.034300 -0.112811  0.043010)
  8:    988.39   0.003114   15.74  0.000983  ( 0.008568 -0.028179  0.010763)
  9:   1151.92   0.034643  175.07  0.009385  (-0.053013 -0.042444 -0.069088)
 10:   1181.91   0.002766   13.98  0.000730  ( 0.025929  0.007594 -0.000695)
 11:   1347.36   0.001331    6.73  0.000308  ( 0.016018  0.002257 -0.006825)
 12:   1499.30   0.025760  130.18  0.005362  ( 0.050017  0.031611  0.043137)
 13:   2914.91   0.020666  104.44  0.002212  ( 0.035306 -0.001120 -0.031059)
 14:   3511.21   0.057679  291.49  0.005126  (-0.068878 -0.018285  0.006908)

--------------------------
THERMOCHEMISTRY AT 298.15K
--------------------------

Temperature         ... 298.15 K
Pressure            ... 1.00 atm
Total Mass          ... 46.02 AMU

Throughout the following assumptions are being made:
  (1) The electronic state is orbitally nondegenerate
      but the spin degeneracy is treated
  (2) There are no thermally accessible electronically excited states
  (3) Hindered rotations indicated by low frequency modes are not
      treated as such but are treated as vibrations and this may
      cause some error
  (4) All equations used are the standard statistical mechanics
      equations for an ideal gas
  (5) All vibrations are strictly harmonic

freq.     465.26  E(vib)   ...       0.16
freq.     694.64  E(vib)   ...       0.07
freq.     988.39  E(vib)   ...       0.02
freq.    1151.92  E(vib)   ...       0.01
freq.    1181.91  E(vib)   ...       0.01
freq.    1347.36  E(vib)   ...       0.01
freq.    1499.30  E(vib)   ...       0.00
freq.    2914.91  E(vib)   ...       0.00
freq.    3511.21  E(vib)   ...       0.00

------------
INNER ENERGY
------------

The inner energy is: U= E(el) + E(ZPE) + E(vib) + E(rot) + E(trans)
    E(el)   - is the total energy from the electronic structure calculation
              = E(kin-el) + E(nuc-el) + E(el-el) + E(nuc-nuc)
    E(ZPE)  - the the zero temperature vibrational energy from the frequency calculation
    E(vib)  - the the finite temperature correction to E(ZPE) due to population
              of excited vibrational states
    E(rot)  - is the rotational thermal energy
    E(trans)- is the translational thermal energy

Summary of contributions to the inner energy U:
Electronic energy                ...   -189.36020482 Eh
Zero point energy                ...      0.03133596 Eh      19.66 kcal/mol
Thermal vibrational correction   ...      0.00045698 Eh       0.29 kcal/mol
Thermal rotational correction    ...      0.00141627 Eh       0.89 kcal/mol
Thermal translational correction ...      0.00141627 Eh       0.89 kcal/mol
-----------------------------------------------------------------------
Total thermal energy                   -189.32557934 Eh

Summary of corrections to the electronic energy:
(perhaps to be used in another calculation)
Total thermal correction                  0.00328953 Eh       2.06 kcal/mol
Non-thermal (ZPE) correction              0.03133596 Eh      19.66 kcal/mol
-----------------------------------------------------------------------
Total correction                          0.03462549 Eh      21.73 kcal/mol

--------
ENTHALPY
--------

The enthalpy is H = U + kB*T
                kB is Boltzmann's constant
Total free energy                 ...   -189.32557934 Eh
Thermal Enthalpy correction       ...      0.00094421 Eh       0.59 kcal/mol
-----------------------------------------------------------------------
Total Enthalpy                    ...   -189.32463513 Eh

Note: Only C1 symmetry has been detected, increase convergence thresholds
      if your molecule has a higher symmetry. Symmetry factor of 1.0 is
      used for the rotational entropy correction.

Note: Rotational entropy computed according to Herzberg
Infrared and Raman Spectra, Chapter V,1, Van Nostrand Reinhold, 1945
Point Group:  C1, Symmetry Number:   1
Rotational constants in cm-1:     2.599088     0.406957     0.351863

Vibrational entropy computed according to the QRRHO of S. Grimme
Chem.Eur.J. 2012 18 9955

-------
ENTROPY
-------

The entropy contributions are T*S = T*(S(el)+S(vib)+S(rot)+S(trans))
     S(el)   - electronic entropy
     S(vib)  - vibrational entropy
     S(rot)  - rotational entropy
     S(trans)- translational entropy
The entropies will be listed as multiplied by the temperature to get
units of energy

Electronic entropy                ...      0.00065446 Eh      0.41 kcal/mol
Vibrational entropy               ...      0.00061402 Eh      0.39 kcal/mol
Rotational entropy                ...      0.00997742 Eh      6.26 kcal/mol
Translational entropy             ...      0.01777224 Eh     11.15 kcal/mol
-----------------------------------------------------------------------
Final entropy term                ...      0.02901814 Eh     18.21 kcal/mol

In case the symmetry of your molecule has not been determined correctly
or in case you have a reason to use a different symmetry number we print
out the resulting rotational entropy values for sn=1,12 :
 --------------------------------------------------------
|  sn= 1 | S(rot)=       0.00997742 Eh      6.26 kcal/mol|
|  sn= 2 | S(rot)=       0.00932297 Eh      5.85 kcal/mol|
|  sn= 3 | S(rot)=       0.00894014 Eh      5.61 kcal/mol|
|  sn= 4 | S(rot)=       0.00866851 Eh      5.44 kcal/mol|
|  sn= 5 | S(rot)=       0.00845782 Eh      5.31 kcal/mol|
|  sn= 6 | S(rot)=       0.00828568 Eh      5.20 kcal/mol|
|  sn= 7 | S(rot)=       0.00814013 Eh      5.11 kcal/mol|
|  sn= 8 | S(rot)=       0.00801406 Eh      5.03 kcal/mol|
|  sn= 9 | S(rot)=       0.00790285 Eh      4.96 kcal/mol|
|  sn=10 | S(rot)=       0.00780337 Eh      4.90 kcal/mol|
|  sn=11 | S(rot)=       0.00771338 Eh      4.84 kcal/mol|
|  sn=12 | S(rot)=       0.00763122 Eh      4.79 kcal/mol|
 --------------------------------------------------------

-------------------
GIBBS FREE ENERGY
-------------------

The Gibbs free energy is G = H - T*S

Total enthalpy                    ...   -189.32463513 Eh
Total entropy correction          ...     -0.02901814 Eh    -18.21 kcal/mol
-----------------------------------------------------------------------
Final Gibbs free energy         ...   -189.35365327 Eh

For completeness - the Gibbs free energy minus the electronic energy
G-E(el)                           ...      0.00655155 Eh      4.11 kcal/mol

                             ****ORCA TERMINATED NORMALLY****
TOTAL RUN TIME: 0 days 0 hours 2 minutes 51 seconds 429 msec
